<?xml version="1.0" encoding="UTF-8"?>

<!-- generated on Friday 19 January 2018 06:47:47 PM IST by SUMO gui Version 0.30.0
<?xml version="1.0" encoding="UTF-8"?>

<configuration xmlns:xsi="http://www.w3.org/2001/XMLSchema-instance" xsi:noNamespaceSchemaLocation="http://sumo.dlr.de/xsd/sumoConfiguration.xsd">

    <input>
        <net-file value="../city.net.xml"/>
        <route-files value="../city.rou.xml"/>
        <additional-files value="../city.det.xml"/>
    </input>

    <output>
        <tripinfo-output value="../tripinfo.xml"/>
    </output>

    <time>
        <begin value="0"/>
        <end value="30000"/>
    </time>

    <traci_server>
        <remote-port value="49671"/>
    </traci_server>

    <gui_only>
        <gui-settings-file value="../city.settings.xml"/>
    </gui_only>

</configuration>
-->

<tripinfos xmlns:xsi="http://www.w3.org/2001/XMLSchema-instance" xsi:noNamespaceSchemaLocation="http://sumo.dlr.de/xsd/tripinfo_file.xsd">
    <tripinfo id="0" depart="0.00" departLane="NorthWesttoU_0" departPos="5.10" departSpeed="0.00" departDelay="0.00" arrival="81.00" arrivalLane="UtoNorthEast_0" arrivalPos="488.57" arrivalSpeed="13.48" duration="81.00" routeLength="986.26" waitSteps="0" timeLoss="8.23" rerouteNo="0" devices="tripinfo_0" vType="DEFAULT_VEHTYPE" speedFactor="1.00" vaporized=""/>
    <tripinfo id="14" depart="14.00" departLane="SouthEasttoR_0" departPos="5.10" departSpeed="0.00" departDelay="0.00" arrival="103.00" arrivalLane="RtoEast_0" arrivalPos="474.72" arrivalSpeed="13.23" duration="89.00" routeLength="950.90" waitSteps="7" timeLoss="20.47" rerouteNo="0" devices="tripinfo_14" vType="DEFAULT_VEHTYPE" speedFactor="1.00" vaporized=""/>
    <tripinfo id="24" depart="24.00" departLane="SouthEasttoR_0" departPos="5.10" departSpeed="0.00" departDelay="0.00" arrival="106.00" arrivalLane="RtoEast_0" arrivalPos="474.72" arrivalSpeed="13.13" duration="82.00" routeLength="950.90" waitSteps="1" timeLoss="13.36" rerouteNo="0" devices="tripinfo_24" vType="DEFAULT_VEHTYPE" speedFactor="1.00" vaporized=""/>
    <tripinfo id="35" depart="37.00" departLane="WesttoL_0" departPos="5.10" departSpeed="0.00" departDelay="2.00" arrival="114.00" arrivalLane="LtoSouthWest_0" arrivalPos="474.64" arrivalSpeed="13.25" duration="77.00" routeLength="950.90" waitSteps="0" timeLoss="7.60" rerouteNo="0" devices="tripinfo_35" vType="DEFAULT_VEHTYPE" speedFactor="1.00" vaporized=""/>
    <tripinfo id="59" depart="61.00" departLane="SouthEasttoR_0" departPos="5.10" departSpeed="0.00" departDelay="2.00" arrival="138.00" arrivalLane="RtoEast_0" arrivalPos="474.72" arrivalSpeed="12.62" duration="77.00" routeLength="950.90" waitSteps="0" timeLoss="7.10" rerouteNo="0" devices="tripinfo_59" vType="DEFAULT_VEHTYPE" speedFactor="1.00" vaporized=""/>
    <tripinfo id="3" depart="5.00" departLane="NorthEasttoU_0" departPos="5.10" departSpeed="0.00" departDelay="2.00" arrival="147.00" arrivalLane="RtoEast_0" arrivalPos="474.72" arrivalSpeed="13.82" duration="142.00" routeLength="1669.16" waitSteps="2" timeLoss="19.40" rerouteNo="0" devices="tripinfo_3" vType="DEFAULT_VEHTYPE" speedFactor="1.00" vaporized=""/>
    <tripinfo id="2" depart="2.00" departLane="NorthEasttoU_0" departPos="5.10" departSpeed="0.00" departDelay="0.00" arrival="149.00" arrivalLane="RtoEast_1" arrivalPos="474.72" arrivalSpeed="13.02" duration="147.00" routeLength="1669.16" waitSteps="7" timeLoss="23.52" rerouteNo="0" devices="tripinfo_2" vType="DEFAULT_VEHTYPE" speedFactor="1.00" vaporized=""/>
    <tripinfo id="73" depart="74.00" departLane="NorthEasttoU_0" departPos="5.10" departSpeed="0.00" departDelay="1.00" arrival="153.00" arrivalLane="UtoNorthWest_0" arrivalPos="488.57" arrivalSpeed="12.92" duration="79.00" routeLength="977.04" waitSteps="0" timeLoss="8.10" rerouteNo="0" devices="tripinfo_73" vType="DEFAULT_VEHTYPE" speedFactor="1.00" vaporized=""/>
    <tripinfo id="69" depart="69.00" departLane="SouthEasttoR_0" departPos="5.10" departSpeed="0.00" departDelay="0.00" arrival="165.00" arrivalLane="RtoEast_0" arrivalPos="474.72" arrivalSpeed="13.12" duration="96.00" routeLength="950.90" waitSteps="14" timeLoss="27.42" rerouteNo="0" devices="tripinfo_69" vType="DEFAULT_VEHTYPE" speedFactor="1.00" vaporized=""/>
    <tripinfo id="95" depart="96.00" departLane="SouthEasttoR_0" departPos="5.10" departSpeed="0.00" departDelay="1.00" arrival="172.00" arrivalLane="RtoEast_0" arrivalPos="474.72" arrivalSpeed="13.41" duration="76.00" routeLength="950.90" waitSteps="0" timeLoss="7.42" rerouteNo="0" devices="tripinfo_95" vType="DEFAULT_VEHTYPE" speedFactor="1.00" vaporized=""/>
    <tripinfo id="100" depart="100.00" departLane="WesttoL_0" departPos="5.10" departSpeed="0.00" departDelay="0.00" arrival="177.00" arrivalLane="LtoSouthWest_0" arrivalPos="474.64" arrivalSpeed="12.75" duration="77.00" routeLength="950.90" waitSteps="0" timeLoss="8.00" rerouteNo="0" devices="tripinfo_100" vType="DEFAULT_VEHTYPE" speedFactor="1.00" vaporized=""/>
    <tripinfo id="103" depart="103.00" departLane="WesttoL_0" departPos="5.10" departSpeed="0.00" departDelay="0.00" arrival="181.00" arrivalLane="LtoSouthWest_0" arrivalPos="474.64" arrivalSpeed="13.72" duration="78.00" routeLength="950.90" waitSteps="0" timeLoss="8.57" rerouteNo="0" devices="tripinfo_103" vType="DEFAULT_VEHTYPE" speedFactor="1.00" vaporized=""/>
    <tripinfo id="104" depart="106.00" departLane="WesttoL_0" departPos="5.10" departSpeed="0.00" departDelay="2.00" arrival="183.00" arrivalLane="LtoSouthWest_0" arrivalPos="474.64" arrivalSpeed="13.81" duration="77.00" routeLength="950.90" waitSteps="0" timeLoss="8.15" rerouteNo="0" devices="tripinfo_104" vType="DEFAULT_VEHTYPE" speedFactor="1.00" vaporized=""/>
    <tripinfo id="102" depart="102.00" departLane="SouthWesttoL_0" departPos="5.10" departSpeed="0.00" departDelay="0.00" arrival="188.00" arrivalLane="LtoWest_0" arrivalPos="474.72" arrivalSpeed="13.07" duration="86.00" routeLength="964.65" waitSteps="2" timeLoss="15.25" rerouteNo="0" devices="tripinfo_102" vType="DEFAULT_VEHTYPE" speedFactor="1.00" vaporized=""/>
    <tripinfo id="49" depart="49.00" departLane="SouthWesttoL_0" departPos="5.10" departSpeed="0.00" departDelay="0.00" arrival="188.00" arrivalLane="UtoNorthEast_0" arrivalPos="488.57" arrivalSpeed="13.03" duration="139.00" routeLength="1701.85" waitSteps="0" timeLoss="15.92" rerouteNo="0" devices="tripinfo_49" vType="DEFAULT_VEHTYPE" speedFactor="1.00" vaporized=""/>
    <tripinfo id="25" depart="25.00" departLane="WesttoL_0" departPos="5.10" departSpeed="0.00" departDelay="0.00" arrival="190.00" arrivalLane="UtoNorthWest_0" arrivalPos="488.57" arrivalSpeed="12.94" duration="165.00" routeLength="1669.16" waitSteps="21" timeLoss="42.02" rerouteNo="0" devices="tripinfo_25" vType="DEFAULT_VEHTYPE" speedFactor="1.00" vaporized=""/>
    <tripinfo id="21" depart="21.00" departLane="NorthWesttoU_0" departPos="5.10" departSpeed="0.00" departDelay="0.00" arrival="190.00" arrivalLane="RtoEast_1" arrivalPos="474.72" arrivalSpeed="12.98" duration="169.00" routeLength="1677.64" waitSteps="26" timeLoss="46.08" rerouteNo="0" devices="tripinfo_21" vType="DEFAULT_VEHTYPE" speedFactor="1.00" vaporized=""/>
    <tripinfo id="38" depart="38.00" departLane="NorthEasttoU_0" departPos="5.10" departSpeed="0.00" departDelay="0.00" arrival="190.00" arrivalLane="RtoEast_0" arrivalPos="474.72" arrivalSpeed="13.23" duration="152.00" routeLength="1669.16" waitSteps="11" timeLoss="28.85" rerouteNo="0" devices="tripinfo_38" vType="DEFAULT_VEHTYPE" speedFactor="1.00" vaporized=""/>
    <tripinfo id="34" depart="34.00" departLane="WesttoL_0" departPos="5.10" departSpeed="0.00" departDelay="0.00" arrival="191.00" arrivalLane="UtoNorthEast_0" arrivalPos="488.57" arrivalSpeed="12.81" duration="157.00" routeLength="1677.64" waitSteps="17" timeLoss="33.55" rerouteNo="0" devices="tripinfo_34" vType="DEFAULT_VEHTYPE" speedFactor="1.00" vaporized=""/>
    <tripinfo id="43" depart="43.00" departLane="NorthWesttoU_0" departPos="5.10" departSpeed="0.00" departDelay="0.00" arrival="192.00" arrivalLane="RtoEast_2" arrivalPos="474.72" arrivalSpeed="13.06" duration="149.00" routeLength="1677.64" waitSteps="1" timeLoss="26.31" rerouteNo="0" devices="tripinfo_43" vType="DEFAULT_VEHTYPE" speedFactor="1.00" vaporized=""/>
    <tripinfo id="50" depart="50.00" departLane="NorthWesttoU_0" departPos="5.10" departSpeed="0.00" departDelay="0.00" arrival="192.00" arrivalLane="RtoEast_0" arrivalPos="474.72" arrivalSpeed="13.38" duration="142.00" routeLength="1677.64" waitSteps="2" timeLoss="18.92" rerouteNo="0" devices="tripinfo_50" vType="DEFAULT_VEHTYPE" speedFactor="1.00" vaporized=""/>
    <tripinfo id="51" depart="51.00" departLane="NorthEasttoU_0" departPos="5.10" departSpeed="0.00" departDelay="0.00" arrival="201.00" arrivalLane="RtoSouthEast_0" arrivalPos="474.64" arrivalSpeed="13.19" duration="150.00" routeLength="1693.37" waitSteps="9" timeLoss="27.17" rerouteNo="0" devices="tripinfo_51" vType="DEFAULT_VEHTYPE" speedFactor="1.00" vaporized=""/>
    <tripinfo id="64" depart="67.00" departLane="SouthWesttoL_0" departPos="5.10" departSpeed="0.00" departDelay="3.00" arrival="203.00" arrivalLane="UtoNorthWest_0" arrivalPos="488.57" arrivalSpeed="13.76" duration="136.00" routeLength="1693.37" waitSteps="0" timeLoss="12.54" rerouteNo="0" devices="tripinfo_64" vType="DEFAULT_VEHTYPE" speedFactor="1.00" vaporized=""/>
    <tripinfo id="54" depart="54.00" departLane="NorthEasttoU_0" departPos="5.10" departSpeed="0.00" departDelay="0.00" arrival="203.00" arrivalLane="RtoEast_0" arrivalPos="474.72" arrivalSpeed="13.22" duration="149.00" routeLength="1669.16" waitSteps="10" timeLoss="25.93" rerouteNo="0" devices="tripinfo_54" vType="DEFAULT_VEHTYPE" speedFactor="1.00" vaporized=""/>
    <tripinfo id="47" depart="47.00" departLane="NorthEasttoU_0" departPos="5.10" departSpeed="0.00" departDelay="0.00" arrival="204.00" arrivalLane="RtoEast_1" arrivalPos="474.72" arrivalSpeed="12.98" duration="157.00" routeLength="1669.16" waitSteps="15" timeLoss="33.81" rerouteNo="0" devices="tripinfo_47" vType="DEFAULT_VEHTYPE" speedFactor="1.00" vaporized=""/>
    <tripinfo id="126" depart="126.00" departLane="SouthWesttoL_0" departPos="5.10" departSpeed="0.00" departDelay="0.00" arrival="205.00" arrivalLane="LtoWest_0" arrivalPos="474.72" arrivalSpeed="13.74" duration="79.00" routeLength="964.65" waitSteps="0" timeLoss="6.98" rerouteNo="0" devices="tripinfo_126" vType="DEFAULT_VEHTYPE" speedFactor="1.00" vaporized=""/>
    <tripinfo id="68" depart="71.00" departLane="NorthEasttoU_0" departPos="5.10" departSpeed="0.00" departDelay="3.00" arrival="206.00" arrivalLane="RtoEast_0" arrivalPos="474.72" arrivalSpeed="12.63" duration="135.00" routeLength="1669.16" waitSteps="0" timeLoss="11.32" rerouteNo="0" devices="tripinfo_68" vType="DEFAULT_VEHTYPE" speedFactor="1.00" vaporized=""/>
    <tripinfo id="106" depart="112.00" departLane="WesttoL_0" departPos="5.10" departSpeed="0.00" departDelay="6.00" arrival="207.00" arrivalLane="LtoSouthWest_0" arrivalPos="474.64" arrivalSpeed="13.17" duration="95.00" routeLength="950.90" waitSteps="13" timeLoss="25.57" rerouteNo="0" devices="tripinfo_106" vType="DEFAULT_VEHTYPE" speedFactor="1.00" vaporized=""/>
    <tripinfo id="130" depart="136.00" departLane="WesttoL_0" departPos="5.10" departSpeed="0.00" departDelay="6.00" arrival="214.00" arrivalLane="LtoSouthWest_0" arrivalPos="474.64" arrivalSpeed="13.11" duration="78.00" routeLength="950.90" waitSteps="0" timeLoss="8.75" rerouteNo="0" devices="tripinfo_130" vType="DEFAULT_VEHTYPE" speedFactor="1.00" vaporized=""/>
    <tripinfo id="133" depart="139.00" departLane="WesttoL_0" departPos="5.10" departSpeed="0.00" departDelay="6.00" arrival="217.00" arrivalLane="LtoSouthWest_0" arrivalPos="474.64" arrivalSpeed="12.61" duration="78.00" routeLength="950.90" waitSteps="0" timeLoss="8.79" rerouteNo="0" devices="tripinfo_133" vType="DEFAULT_VEHTYPE" speedFactor="1.00" vaporized=""/>
    <tripinfo id="70" depart="70.00" departLane="NorthWesttoU_0" departPos="5.10" departSpeed="0.00" departDelay="0.00" arrival="224.00" arrivalLane="RtoEast_0" arrivalPos="474.72" arrivalSpeed="13.00" duration="154.00" routeLength="1677.64" waitSteps="13" timeLoss="30.57" rerouteNo="0" devices="tripinfo_70" vType="DEFAULT_VEHTYPE" speedFactor="1.00" vaporized=""/>
    <tripinfo id="23" depart="23.00" departLane="NorthEasttoU_0" departPos="5.10" departSpeed="0.00" departDelay="0.00" arrival="231.00" arrivalLane="LtoSouthWest_1" arrivalPos="474.64" arrivalSpeed="13.04" duration="208.00" routeLength="1701.85" waitSteps="69" timeLoss="85.04" rerouteNo="0" devices="tripinfo_23" vType="DEFAULT_VEHTYPE" speedFactor="1.00" vaporized=""/>
    <tripinfo id="17" depart="17.00" departLane="NorthEasttoU_0" departPos="5.10" departSpeed="0.00" departDelay="0.00" arrival="231.00" arrivalLane="LtoSouthWest_0" arrivalPos="474.64" arrivalSpeed="13.35" duration="214.00" routeLength="1701.85" waitSteps="76" timeLoss="90.87" rerouteNo="0" devices="tripinfo_17" vType="DEFAULT_VEHTYPE" speedFactor="1.00" vaporized=""/>
    <tripinfo id="55" depart="55.00" departLane="NorthWesttoU_0" departPos="5.10" departSpeed="0.00" departDelay="0.00" arrival="232.00" arrivalLane="LtoSouthWest_2" arrivalPos="474.64" arrivalSpeed="13.26" duration="177.00" routeLength="1684.15" waitSteps="36" timeLoss="54.52" rerouteNo="0" devices="tripinfo_55" vType="DEFAULT_VEHTYPE" speedFactor="1.00" vaporized=""/>
    <tripinfo id="33" depart="33.00" departLane="NorthEasttoU_0" departPos="5.10" departSpeed="0.00" departDelay="0.00" arrival="232.00" arrivalLane="LtoWest_0" arrivalPos="474.72" arrivalSpeed="12.84" duration="199.00" routeLength="1692.83" waitSteps="60" timeLoss="76.99" rerouteNo="0" devices="tripinfo_33" vType="DEFAULT_VEHTYPE" speedFactor="1.00" vaporized=""/>
    <tripinfo id="154" depart="154.00" departLane="NorthWesttoU_0" departPos="5.10" departSpeed="0.00" departDelay="0.00" arrival="234.00" arrivalLane="UtoNorthEast_1" arrivalPos="488.57" arrivalSpeed="13.50" duration="80.00" routeLength="986.26" waitSteps="0" timeLoss="8.40" rerouteNo="0" devices="tripinfo_154" vType="DEFAULT_VEHTYPE" speedFactor="1.00" vaporized=""/>
    <tripinfo id="56" depart="57.00" departLane="NorthEasttoU_0" departPos="5.10" departSpeed="0.00" departDelay="1.00" arrival="234.00" arrivalLane="LtoSouthWest_1" arrivalPos="474.64" arrivalSpeed="13.10" duration="177.00" routeLength="1701.85" waitSteps="35" timeLoss="53.65" rerouteNo="0" devices="tripinfo_56" vType="DEFAULT_VEHTYPE" speedFactor="1.00" vaporized=""/>
    <tripinfo id="114" depart="114.00" departLane="NorthWesttoU_0" departPos="5.10" departSpeed="0.00" departDelay="0.00" arrival="235.00" arrivalLane="UtoNorthEast_0" arrivalPos="488.57" arrivalSpeed="12.89" duration="121.00" routeLength="986.26" waitSteps="35" timeLoss="48.81" rerouteNo="0" devices="tripinfo_114" vType="DEFAULT_VEHTYPE" speedFactor="1.00" vaporized=""/>
    <tripinfo id="36" depart="36.00" departLane="NorthWesttoU_0" departPos="5.10" departSpeed="0.00" departDelay="0.00" arrival="235.00" arrivalLane="LtoWest_0" arrivalPos="474.72" arrivalSpeed="12.62" duration="199.00" routeLength="1675.13" waitSteps="54" timeLoss="77.94" rerouteNo="0" devices="tripinfo_36" vType="DEFAULT_VEHTYPE" speedFactor="1.00" vaporized=""/>
    <tripinfo id="65" depart="65.00" departLane="NorthEasttoU_0" departPos="5.10" departSpeed="0.00" departDelay="0.00" arrival="237.00" arrivalLane="LtoSouthWest_0" arrivalPos="474.64" arrivalSpeed="12.76" duration="172.00" routeLength="1701.85" waitSteps="24" timeLoss="48.60" rerouteNo="0" devices="tripinfo_65" vType="DEFAULT_VEHTYPE" speedFactor="1.00" vaporized=""/>
    <tripinfo id="101" depart="101.00" departLane="NorthWesttoU_0" departPos="5.10" departSpeed="0.00" departDelay="0.00" arrival="238.00" arrivalLane="LtoSouthWest_1" arrivalPos="474.64" arrivalSpeed="13.56" duration="137.00" routeLength="1684.15" waitSteps="0" timeLoss="15.65" rerouteNo="0" devices="tripinfo_101" vType="DEFAULT_VEHTYPE" speedFactor="1.00" vaporized=""/>
    <tripinfo id="157" depart="160.00" departLane="NorthWesttoU_0" departPos="5.10" departSpeed="0.00" departDelay="3.00" arrival="239.00" arrivalLane="UtoNorthEast_0" arrivalPos="488.57" arrivalSpeed="13.53" duration="79.00" routeLength="986.26" waitSteps="0" timeLoss="6.75" rerouteNo="0" devices="tripinfo_157" vType="DEFAULT_VEHTYPE" speedFactor="1.00" vaporized=""/>
    <tripinfo id="42" depart="42.00" departLane="NorthEasttoU_0" departPos="5.10" departSpeed="0.00" departDelay="0.00" arrival="239.00" arrivalLane="LtoSouthWest_0" arrivalPos="474.64" arrivalSpeed="12.73" duration="197.00" routeLength="1701.85" waitSteps="50" timeLoss="73.60" rerouteNo="0" devices="tripinfo_42" vType="DEFAULT_VEHTYPE" speedFactor="1.00" vaporized=""/>
    <tripinfo id="81" depart="82.00" departLane="NorthWesttoU_0" departPos="5.10" departSpeed="0.00" departDelay="1.00" arrival="240.00" arrivalLane="LtoWest_0" arrivalPos="474.72" arrivalSpeed="13.34" duration="158.00" routeLength="1675.13" waitSteps="8" timeLoss="36.26" rerouteNo="0" devices="tripinfo_81" vType="DEFAULT_VEHTYPE" speedFactor="1.00" vaporized=""/>
    <tripinfo id="132" depart="132.00" departLane="NorthWesttoU_0" departPos="5.10" departSpeed="0.00" departDelay="0.00" arrival="242.00" arrivalLane="UtoNorthEast_0" arrivalPos="488.57" arrivalSpeed="12.79" duration="110.00" routeLength="986.26" waitSteps="18" timeLoss="37.25" rerouteNo="0" devices="tripinfo_132" vType="DEFAULT_VEHTYPE" speedFactor="1.00" vaporized=""/>
    <tripinfo id="28" depart="28.00" departLane="NorthWesttoU_0" departPos="5.10" departSpeed="0.00" departDelay="0.00" arrival="242.00" arrivalLane="LtoWest_1" arrivalPos="474.72" arrivalSpeed="13.66" duration="214.00" routeLength="1675.13" waitSteps="63" timeLoss="91.81" rerouteNo="0" devices="tripinfo_28" vType="DEFAULT_VEHTYPE" speedFactor="1.00" vaporized=""/>
    <tripinfo id="57" depart="58.00" departLane="NorthWesttoU_0" departPos="5.10" departSpeed="0.00" departDelay="1.00" arrival="244.00" arrivalLane="LtoWest_0" arrivalPos="474.72" arrivalSpeed="12.89" duration="186.00" routeLength="1675.13" waitSteps="40" timeLoss="64.55" rerouteNo="0" devices="tripinfo_57" vType="DEFAULT_VEHTYPE" speedFactor="1.00" vaporized=""/>
    <tripinfo id="72" depart="73.00" departLane="NorthWesttoU_0" departPos="5.10" departSpeed="0.00" departDelay="1.00" arrival="246.00" arrivalLane="LtoWest_0" arrivalPos="474.72" arrivalSpeed="13.54" duration="173.00" routeLength="1675.13" waitSteps="17" timeLoss="50.93" rerouteNo="0" devices="tripinfo_72" vType="DEFAULT_VEHTYPE" speedFactor="1.00" vaporized=""/>
    <tripinfo id="88" depart="88.00" departLane="WesttoL_0" departPos="5.10" departSpeed="0.00" departDelay="0.00" arrival="251.00" arrivalLane="UtoNorthWest_0" arrivalPos="488.57" arrivalSpeed="13.41" duration="163.00" routeLength="1669.16" waitSteps="22" timeLoss="40.12" rerouteNo="0" devices="tripinfo_88" vType="DEFAULT_VEHTYPE" speedFactor="1.00" vaporized=""/>
    <tripinfo id="80" depart="80.00" departLane="WesttoL_0" departPos="5.10" departSpeed="0.00" departDelay="0.00" arrival="251.00" arrivalLane="UtoNorthEast_0" arrivalPos="488.57" arrivalSpeed="12.83" duration="171.00" routeLength="1677.64" waitSteps="28" timeLoss="48.22" rerouteNo="0" devices="tripinfo_80" vType="DEFAULT_VEHTYPE" speedFactor="1.00" vaporized=""/>
    <tripinfo id="129" depart="135.00" departLane="SouthWesttoL_0" departPos="5.10" departSpeed="0.00" departDelay="6.00" arrival="252.00" arrivalLane="LtoWest_0" arrivalPos="474.72" arrivalSpeed="12.75" duration="117.00" routeLength="964.65" waitSteps="33" timeLoss="45.62" rerouteNo="0" devices="tripinfo_129" vType="DEFAULT_VEHTYPE" speedFactor="1.00" vaporized=""/>
    <tripinfo id="71" depart="71.00" departLane="WesttoL_0" departPos="5.10" departSpeed="0.00" departDelay="0.00" arrival="253.00" arrivalLane="UtoNorthEast_0" arrivalPos="488.57" arrivalSpeed="13.57" duration="182.00" routeLength="1677.64" waitSteps="37" timeLoss="59.03" rerouteNo="0" devices="tripinfo_71" vType="DEFAULT_VEHTYPE" speedFactor="1.00" vaporized=""/>
    <tripinfo id="86" depart="86.00" departLane="SouthWesttoL_0" departPos="5.10" departSpeed="0.00" departDelay="0.00" arrival="254.00" arrivalLane="UtoNorthWest_1" arrivalPos="488.57" arrivalSpeed="12.71" duration="168.00" routeLength="1693.37" waitSteps="24" timeLoss="44.77" rerouteNo="0" devices="tripinfo_86" vType="DEFAULT_VEHTYPE" speedFactor="1.00" vaporized=""/>
    <tripinfo id="93" depart="94.00" departLane="WesttoL_0" departPos="5.10" departSpeed="0.00" departDelay="1.00" arrival="255.00" arrivalLane="UtoNorthWest_0" arrivalPos="488.57" arrivalSpeed="13.58" duration="161.00" routeLength="1669.16" waitSteps="19" timeLoss="37.20" rerouteNo="0" devices="tripinfo_93" vType="DEFAULT_VEHTYPE" speedFactor="1.00" vaporized=""/>
    <tripinfo id="107" depart="115.00" departLane="WesttoL_0" departPos="5.10" departSpeed="0.00" departDelay="8.00" arrival="265.00" arrivalLane="UtoNorthEast_0" arrivalPos="488.57" arrivalSpeed="13.80" duration="150.00" routeLength="1677.64" waitSteps="10" timeLoss="27.40" rerouteNo="0" devices="tripinfo_107" vType="DEFAULT_VEHTYPE" speedFactor="1.00" vaporized=""/>
    <tripinfo id="198" depart="198.00" departLane="WesttoL_0" departPos="5.10" departSpeed="0.00" departDelay="0.00" arrival="276.00" arrivalLane="LtoSouthWest_0" arrivalPos="474.64" arrivalSpeed="13.02" duration="78.00" routeLength="950.90" waitSteps="0" timeLoss="9.49" rerouteNo="0" devices="tripinfo_198" vType="DEFAULT_VEHTYPE" speedFactor="1.00" vaporized=""/>
    <tripinfo id="122" depart="122.00" departLane="NorthWesttoU_0" departPos="5.10" departSpeed="0.00" departDelay="0.00" arrival="286.00" arrivalLane="RtoEast_0" arrivalPos="474.72" arrivalSpeed="13.55" duration="164.00" routeLength="1677.64" waitSteps="20" timeLoss="40.50" rerouteNo="0" devices="tripinfo_122" vType="DEFAULT_VEHTYPE" speedFactor="1.00" vaporized=""/>
    <tripinfo id="109" depart="109.00" departLane="NorthWesttoU_0" departPos="5.10" departSpeed="0.00" departDelay="0.00" arrival="287.00" arrivalLane="RtoEast_1" arrivalPos="474.72" arrivalSpeed="13.53" duration="178.00" routeLength="1677.64" waitSteps="36" timeLoss="55.48" rerouteNo="0" devices="tripinfo_109" vType="DEFAULT_VEHTYPE" speedFactor="1.00" vaporized=""/>
    <tripinfo id="210" depart="210.00" departLane="WesttoL_0" departPos="5.10" departSpeed="0.00" departDelay="0.00" arrival="288.00" arrivalLane="LtoSouthWest_0" arrivalPos="474.64" arrivalSpeed="13.84" duration="78.00" routeLength="950.90" waitSteps="0" timeLoss="8.60" rerouteNo="0" devices="tripinfo_210" vType="DEFAULT_VEHTYPE" speedFactor="1.00" vaporized=""/>
    <tripinfo id="141" depart="143.00" departLane="NorthWesttoU_0" departPos="5.10" departSpeed="0.00" departDelay="2.00" arrival="292.00" arrivalLane="RtoSouthEast_0" arrivalPos="474.64" arrivalSpeed="13.50" duration="149.00" routeLength="1701.85" waitSteps="2" timeLoss="25.49" rerouteNo="0" devices="tripinfo_141" vType="DEFAULT_VEHTYPE" speedFactor="1.00" vaporized=""/>
    <tripinfo id="181" depart="181.00" departLane="NorthWesttoU_0" departPos="5.10" departSpeed="0.00" departDelay="0.00" arrival="298.00" arrivalLane="UtoNorthEast_0" arrivalPos="488.57" arrivalSpeed="12.73" duration="117.00" routeLength="986.26" waitSteps="29" timeLoss="44.53" rerouteNo="0" devices="tripinfo_181" vType="DEFAULT_VEHTYPE" speedFactor="1.00" vaporized=""/>
    <tripinfo id="232" depart="232.00" departLane="SouthWesttoL_0" departPos="5.10" departSpeed="0.00" departDelay="0.00" arrival="311.00" arrivalLane="LtoWest_0" arrivalPos="474.72" arrivalSpeed="13.00" duration="79.00" routeLength="964.65" waitSteps="0" timeLoss="7.16" rerouteNo="0" devices="tripinfo_232" vType="DEFAULT_VEHTYPE" speedFactor="1.00" vaporized=""/>
    <tripinfo id="136" depart="142.00" departLane="WesttoL_0" departPos="5.10" departSpeed="0.00" departDelay="6.00" arrival="314.00" arrivalLane="UtoNorthWest_0" arrivalPos="488.57" arrivalSpeed="13.47" duration="172.00" routeLength="1669.16" waitSteps="32" timeLoss="48.79" rerouteNo="0" devices="tripinfo_136" vType="DEFAULT_VEHTYPE" speedFactor="1.00" vaporized=""/>
    <tripinfo id="233" depart="235.00" departLane="SouthWesttoL_0" departPos="5.10" departSpeed="0.00" departDelay="2.00" arrival="314.00" arrivalLane="LtoWest_0" arrivalPos="474.72" arrivalSpeed="13.18" duration="79.00" routeLength="964.65" waitSteps="0" timeLoss="7.47" rerouteNo="0" devices="tripinfo_233" vType="DEFAULT_VEHTYPE" speedFactor="1.00" vaporized=""/>
    <tripinfo id="131" depart="138.00" departLane="SouthWesttoL_0" departPos="5.10" departSpeed="0.00" departDelay="7.00" arrival="314.00" arrivalLane="UtoNorthEast_0" arrivalPos="488.57" arrivalSpeed="13.27" duration="176.00" routeLength="1701.85" waitSteps="32" timeLoss="52.81" rerouteNo="0" devices="tripinfo_131" vType="DEFAULT_VEHTYPE" speedFactor="1.00" vaporized=""/>
    <tripinfo id="127" depart="129.00" departLane="SouthWesttoL_0" departPos="5.10" departSpeed="0.00" departDelay="2.00" arrival="315.00" arrivalLane="UtoNorthWest_1" arrivalPos="488.57" arrivalSpeed="13.38" duration="186.00" routeLength="1693.37" waitSteps="40" timeLoss="62.58" rerouteNo="0" devices="tripinfo_127" vType="DEFAULT_VEHTYPE" speedFactor="1.00" vaporized=""/>
    <tripinfo id="167" depart="169.00" departLane="SouthWesttoL_0" departPos="5.10" departSpeed="0.00" departDelay="2.00" arrival="317.00" arrivalLane="UtoNorthWest_1" arrivalPos="488.57" arrivalSpeed="13.55" duration="148.00" routeLength="1693.37" waitSteps="3" timeLoss="24.89" rerouteNo="0" devices="tripinfo_167" vType="DEFAULT_VEHTYPE" speedFactor="1.00" vaporized=""/>
    <tripinfo id="128" depart="132.00" departLane="SouthWesttoL_0" departPos="5.10" departSpeed="0.00" departDelay="4.00" arrival="318.00" arrivalLane="UtoNorthWest_0" arrivalPos="488.57" arrivalSpeed="13.01" duration="186.00" routeLength="1693.37" waitSteps="43" timeLoss="62.28" rerouteNo="0" devices="tripinfo_128" vType="DEFAULT_VEHTYPE" speedFactor="1.00" vaporized=""/>
    <tripinfo id="176" depart="178.00" departLane="SouthWesttoL_0" departPos="5.10" departSpeed="0.00" departDelay="2.00" arrival="318.00" arrivalLane="UtoNorthEast_0" arrivalPos="488.57" arrivalSpeed="13.85" duration="140.00" routeLength="1701.85" waitSteps="0" timeLoss="16.82" rerouteNo="0" devices="tripinfo_176" vType="DEFAULT_VEHTYPE" speedFactor="1.00" vaporized=""/>
    <tripinfo id="166" depart="166.00" departLane="SouthWesttoL_0" departPos="5.10" departSpeed="0.00" departDelay="0.00" arrival="320.00" arrivalLane="UtoNorthWest_0" arrivalPos="488.57" arrivalSpeed="13.70" duration="154.00" routeLength="1693.37" waitSteps="6" timeLoss="30.25" rerouteNo="0" devices="tripinfo_166" vType="DEFAULT_VEHTYPE" speedFactor="1.00" vaporized=""/>
    <tripinfo id="169" depart="172.00" departLane="SouthWesttoL_0" departPos="5.10" departSpeed="0.00" departDelay="3.00" arrival="320.00" arrivalLane="UtoNorthWest_2" arrivalPos="488.57" arrivalSpeed="13.26" duration="148.00" routeLength="1693.37" waitSteps="1" timeLoss="24.83" rerouteNo="0" devices="tripinfo_169" vType="DEFAULT_VEHTYPE" speedFactor="1.00" vaporized=""/>
    <tripinfo id="163" depart="163.00" departLane="SouthWesttoL_0" departPos="5.10" departSpeed="0.00" departDelay="0.00" arrival="323.00" arrivalLane="UtoNorthWest_0" arrivalPos="488.57" arrivalSpeed="12.92" duration="160.00" routeLength="1693.37" waitSteps="12" timeLoss="36.67" rerouteNo="0" devices="tripinfo_163" vType="DEFAULT_VEHTYPE" speedFactor="1.00" vaporized=""/>
    <tripinfo id="152" depart="154.00" departLane="NorthEasttoU_0" departPos="5.10" departSpeed="0.00" departDelay="2.00" arrival="327.00" arrivalLane="RtoEast_0" arrivalPos="474.72" arrivalSpeed="13.81" duration="173.00" routeLength="1669.16" waitSteps="34" timeLoss="50.18" rerouteNo="0" devices="tripinfo_152" vType="DEFAULT_VEHTYPE" speedFactor="1.00" vaporized=""/>
    <tripinfo id="172" depart="172.00" departLane="WesttoL_0" departPos="5.10" departSpeed="0.00" departDelay="0.00" arrival="328.00" arrivalLane="UtoNorthEast_0" arrivalPos="488.57" arrivalSpeed="13.69" duration="156.00" routeLength="1677.64" waitSteps="18" timeLoss="33.23" rerouteNo="0" devices="tripinfo_172" vType="DEFAULT_VEHTYPE" speedFactor="1.00" vaporized=""/>
    <tripinfo id="151" depart="151.00" departLane="NorthEasttoU_0" departPos="5.10" departSpeed="0.00" departDelay="0.00" arrival="329.00" arrivalLane="RtoSouthEast_0" arrivalPos="474.64" arrivalSpeed="13.10" duration="178.00" routeLength="1693.37" waitSteps="37" timeLoss="54.86" rerouteNo="0" devices="tripinfo_151" vType="DEFAULT_VEHTYPE" speedFactor="1.00" vaporized=""/>
    <tripinfo id="185" depart="185.00" departLane="NorthEasttoU_0" departPos="5.10" departSpeed="0.00" departDelay="0.00" arrival="330.00" arrivalLane="RtoEast_0" arrivalPos="474.72" arrivalSpeed="13.83" duration="145.00" routeLength="1669.16" waitSteps="4" timeLoss="21.85" rerouteNo="0" devices="tripinfo_185" vType="DEFAULT_VEHTYPE" speedFactor="1.00" vaporized=""/>
    <tripinfo id="188" depart="188.00" departLane="NorthEasttoU_0" departPos="5.10" departSpeed="0.00" departDelay="0.00" arrival="331.00" arrivalLane="RtoEast_1" arrivalPos="474.72" arrivalSpeed="13.39" duration="143.00" routeLength="1669.16" waitSteps="0" timeLoss="20.51" rerouteNo="0" devices="tripinfo_188" vType="DEFAULT_VEHTYPE" speedFactor="1.00" vaporized=""/>
    <tripinfo id="164" depart="165.00" departLane="WesttoL_0" departPos="5.10" departSpeed="0.00" departDelay="1.00" arrival="332.00" arrivalLane="UtoNorthEast_0" arrivalPos="488.57" arrivalSpeed="13.81" duration="167.00" routeLength="1677.64" waitSteps="23" timeLoss="43.36" rerouteNo="0" devices="tripinfo_164" vType="DEFAULT_VEHTYPE" speedFactor="1.00" vaporized=""/>