<?xml version="1.0" encoding="UTF-8"?>

<!-- generated on Wednesday 24 January 2018 07:23:19 PM IST by SUMO gui Version 0.32.0
<?xml version="1.0" encoding="UTF-8"?>

<configuration xmlns:xsi="http://www.w3.org/2001/XMLSchema-instance" xsi:noNamespaceSchemaLocation="http://sumo.dlr.de/xsd/sumoConfiguration.xsd">

    <input>
        <net-file value="../city.net.xml"/>
        <route-files value="../city.rou.xml"/>
        <additional-files value="../city.det.xml"/>
    </input>

    <output>
        <tripinfo-output value="../tripinfo.xml"/>
    </output>

    <time>
        <begin value="0"/>
        <end value="30000"/>
    </time>

    <traci_server>
        <remote-port value="41613"/>
    </traci_server>

    <gui_only>
        <gui-settings-file value="../city.settings.xml"/>
    </gui_only>

</configuration>
-->

<tripinfos xmlns:xsi="http://www.w3.org/2001/XMLSchema-instance" xsi:noNamespaceSchemaLocation="http://sumo.dlr.de/xsd/tripinfo_file.xsd">
    <tripinfo id="0" depart="0.00" departLane="NorthWesttoU_0" departPos="5.10" departSpeed="0.00" departDelay="0.00" arrival="80.00" arrivalLane="UtoNorthEast_0" arrivalPos="488.57" arrivalSpeed="13.77" duration="80.00" routeLength="998.33" waitSteps="0" timeLoss="7.66" rerouteNo="0" devices="tripinfo_0" vType="DEFAULT_VEHTYPE" speedFactor="1.00" vaporized=""/>
    <tripinfo id="14" depart="14.00" departLane="SouthEasttoR_0" departPos="5.10" departSpeed="0.00" departDelay="0.00" arrival="91.00" arrivalLane="RtoEast_0" arrivalPos="474.72" arrivalSpeed="13.80" duration="77.00" routeLength="950.90" waitSteps="0" timeLoss="7.76" rerouteNo="0" devices="tripinfo_14" vType="DEFAULT_VEHTYPE" speedFactor="1.00" vaporized=""/>
    <tripinfo id="35" depart="37.00" departLane="WesttoL_0" departPos="5.10" departSpeed="0.00" departDelay="2.00" arrival="114.00" arrivalLane="LtoSouthWest_0" arrivalPos="474.64" arrivalSpeed="13.05" duration="77.00" routeLength="950.90" waitSteps="0" timeLoss="7.97" rerouteNo="0" devices="tripinfo_35" vType="DEFAULT_VEHTYPE" speedFactor="1.00" vaporized=""/>
    <tripinfo id="24" depart="24.00" departLane="SouthEasttoR_0" departPos="5.10" departSpeed="0.00" departDelay="0.00" arrival="123.00" arrivalLane="RtoEast_0" arrivalPos="474.72" arrivalSpeed="12.75" duration="99.00" routeLength="950.90" waitSteps="19" timeLoss="29.71" rerouteNo="0" devices="tripinfo_24" vType="DEFAULT_VEHTYPE" speedFactor="1.00" vaporized=""/>
    <tripinfo id="59" depart="61.00" departLane="SouthEasttoR_0" departPos="5.10" departSpeed="0.00" departDelay="2.00" arrival="138.00" arrivalLane="RtoEast_0" arrivalPos="474.72" arrivalSpeed="13.16" duration="77.00" routeLength="950.90" waitSteps="0" timeLoss="8.20" rerouteNo="0" devices="tripinfo_59" vType="DEFAULT_VEHTYPE" speedFactor="1.00" vaporized=""/>
    <tripinfo id="69" depart="69.00" departLane="SouthEasttoR_0" departPos="5.10" departSpeed="0.00" departDelay="0.00" arrival="146.00" arrivalLane="RtoEast_0" arrivalPos="474.72" arrivalSpeed="13.17" duration="77.00" routeLength="950.90" waitSteps="0" timeLoss="8.43" rerouteNo="0" devices="tripinfo_69" vType="DEFAULT_VEHTYPE" speedFactor="1.00" vaporized=""/>
    <tripinfo id="73" depart="74.00" departLane="NorthEasttoU_0" departPos="5.10" departSpeed="0.00" departDelay="1.00" arrival="154.00" arrivalLane="UtoNorthWest_0" arrivalPos="488.57" arrivalSpeed="13.08" duration="80.00" routeLength="977.04" waitSteps="0" timeLoss="9.51" rerouteNo="0" devices="tripinfo_73" vType="DEFAULT_VEHTYPE" speedFactor="1.00" vaporized=""/>
    <tripinfo id="74" depart="74.00" departLane="EasttoR_0" departPos="5.10" departSpeed="0.00" departDelay="0.00" arrival="167.00" arrivalLane="RtoSouthEast_0" arrivalPos="474.64" arrivalSpeed="13.36" duration="93.00" routeLength="990.37" waitSteps="12" timeLoss="22.12" rerouteNo="0" devices="tripinfo_74" vType="DEFAULT_VEHTYPE" speedFactor="1.00" vaporized=""/>
    <tripinfo id="100" depart="100.00" departLane="WesttoL_0" departPos="5.10" departSpeed="0.00" departDelay="0.00" arrival="177.00" arrivalLane="LtoSouthWest_0" arrivalPos="474.64" arrivalSpeed="13.09" duration="77.00" routeLength="950.90" waitSteps="0" timeLoss="7.91" rerouteNo="0" devices="tripinfo_100" vType="DEFAULT_VEHTYPE" speedFactor="1.00" vaporized=""/>
    <tripinfo id="103" depart="103.00" departLane="WesttoL_0" departPos="5.10" departSpeed="0.00" departDelay="0.00" arrival="181.00" arrivalLane="LtoSouthWest_0" arrivalPos="474.64" arrivalSpeed="12.66" duration="78.00" routeLength="950.90" waitSteps="0" timeLoss="8.69" rerouteNo="0" devices="tripinfo_103" vType="DEFAULT_VEHTYPE" speedFactor="1.00" vaporized=""/>
    <tripinfo id="104" depart="106.00" departLane="WesttoL_0" departPos="5.10" departSpeed="0.00" departDelay="2.00" arrival="183.00" arrivalLane="LtoSouthWest_0" arrivalPos="474.64" arrivalSpeed="13.42" duration="77.00" routeLength="950.90" waitSteps="0" timeLoss="8.33" rerouteNo="0" devices="tripinfo_104" vType="DEFAULT_VEHTYPE" speedFactor="1.00" vaporized=""/>
    <tripinfo id="8" depart="10.00" departLane="SouthEasttoR_0" departPos="5.10" departSpeed="0.00" departDelay="2.00" arrival="188.00" arrivalLane="UtoNorthWest_0" arrivalPos="488.57" arrivalSpeed="12.93" duration="178.00" routeLength="1701.85" waitSteps="38" timeLoss="55.38" rerouteNo="0" devices="tripinfo_8" vType="DEFAULT_VEHTYPE" speedFactor="1.00" vaporized=""/>
    <tripinfo id="95" depart="96.00" departLane="SouthEasttoR_0" departPos="5.10" departSpeed="0.00" departDelay="1.00" arrival="189.00" arrivalLane="RtoEast_0" arrivalPos="474.72" arrivalSpeed="12.88" duration="93.00" routeLength="950.90" waitSteps="11" timeLoss="23.55" rerouteNo="0" devices="tripinfo_95" vType="DEFAULT_VEHTYPE" speedFactor="1.00" vaporized=""/>
    <tripinfo id="20" depart="20.00" departLane="SouthEasttoR_0" departPos="5.10" departSpeed="0.00" departDelay="0.00" arrival="189.00" arrivalLane="UtoNorthWest_1" arrivalPos="488.57" arrivalSpeed="13.11" duration="169.00" routeLength="1701.85" waitSteps="30" timeLoss="45.73" rerouteNo="0" devices="tripinfo_20" vType="DEFAULT_VEHTYPE" speedFactor="1.00" vaporized=""/>
    <tripinfo id="1" depart="1.00" departLane="EasttoR_0" departPos="5.10" departSpeed="0.00" departDelay="0.00" arrival="189.00" arrivalLane="UtoNorthEast_0" arrivalPos="488.57" arrivalSpeed="13.89" duration="188.00" routeLength="1675.13" waitSteps="47" timeLoss="66.62" rerouteNo="0" devices="tripinfo_1" vType="DEFAULT_VEHTYPE" speedFactor="1.00" vaporized=""/>
    <tripinfo id="23" depart="23.00" departLane="NorthEasttoU_0" departPos="5.10" departSpeed="0.00" departDelay="0.00" arrival="189.00" arrivalLane="LtoSouthWest_1" arrivalPos="474.64" arrivalSpeed="13.53" duration="166.00" routeLength="1701.85" waitSteps="27" timeLoss="43.09" rerouteNo="0" devices="tripinfo_23" vType="DEFAULT_VEHTYPE" speedFactor="1.00" vaporized=""/>
    <tripinfo id="17" depart="17.00" departLane="NorthEasttoU_0" departPos="5.10" departSpeed="0.00" departDelay="0.00" arrival="189.00" arrivalLane="LtoSouthWest_0" arrivalPos="474.64" arrivalSpeed="13.89" duration="172.00" routeLength="1701.85" waitSteps="32" timeLoss="48.97" rerouteNo="0" devices="tripinfo_17" vType="DEFAULT_VEHTYPE" speedFactor="1.00" vaporized=""/>
    <tripinfo id="33" depart="33.00" departLane="NorthEasttoU_0" departPos="5.10" departSpeed="0.00" departDelay="0.00" arrival="190.00" arrivalLane="LtoWest_0" arrivalPos="474.72" arrivalSpeed="12.91" duration="157.00" routeLength="1692.83" waitSteps="19" timeLoss="34.76" rerouteNo="0" devices="tripinfo_33" vType="DEFAULT_VEHTYPE" speedFactor="1.00" vaporized=""/>
    <tripinfo id="42" depart="42.00" departLane="NorthEasttoU_0" departPos="5.10" departSpeed="0.00" departDelay="0.00" arrival="190.00" arrivalLane="LtoSouthWest_2" arrivalPos="474.64" arrivalSpeed="12.98" duration="148.00" routeLength="1701.85" waitSteps="7" timeLoss="24.70" rerouteNo="0" devices="tripinfo_42" vType="DEFAULT_VEHTYPE" speedFactor="1.00" vaporized=""/>
    <tripinfo id="36" depart="36.00" departLane="NorthWesttoU_0" departPos="5.10" departSpeed="0.00" departDelay="0.00" arrival="191.00" arrivalLane="LtoWest_1" arrivalPos="474.72" arrivalSpeed="13.38" duration="155.00" routeLength="1675.13" waitSteps="7" timeLoss="33.08" rerouteNo="0" devices="tripinfo_36" vType="DEFAULT_VEHTYPE" speedFactor="1.00" vaporized=""/>
    <tripinfo id="28" depart="28.00" departLane="NorthWesttoU_0" departPos="5.10" departSpeed="0.00" departDelay="0.00" arrival="193.00" arrivalLane="LtoWest_0" arrivalPos="474.72" arrivalSpeed="13.07" duration="165.00" routeLength="1675.13" waitSteps="19" timeLoss="43.25" rerouteNo="0" devices="tripinfo_28" vType="DEFAULT_VEHTYPE" speedFactor="1.00" vaporized=""/>
    <tripinfo id="16" depart="19.00" departLane="EasttoR_0" departPos="5.10" departSpeed="0.00" departDelay="3.00" arrival="193.00" arrivalLane="UtoNorthWest_0" arrivalPos="488.57" arrivalSpeed="12.66" duration="174.00" routeLength="1692.83" waitSteps="30" timeLoss="51.23" rerouteNo="0" devices="tripinfo_16" vType="DEFAULT_VEHTYPE" speedFactor="1.00" vaporized=""/>
    <tripinfo id="55" depart="55.00" departLane="NorthWesttoU_0" departPos="5.10" departSpeed="0.00" departDelay="0.00" arrival="195.00" arrivalLane="LtoSouthWest_0" arrivalPos="474.64" arrivalSpeed="12.96" duration="140.00" routeLength="1684.15" waitSteps="0" timeLoss="17.89" rerouteNo="0" devices="tripinfo_55" vType="DEFAULT_VEHTYPE" speedFactor="1.00" vaporized=""/>
    <tripinfo id="58" depart="58.00" departLane="SouthEasttoR_0" departPos="5.10" departSpeed="0.00" departDelay="0.00" arrival="195.00" arrivalLane="UtoNorthWest_0" arrivalPos="488.57" arrivalSpeed="12.97" duration="137.00" routeLength="1701.85" waitSteps="0" timeLoss="14.12" rerouteNo="0" devices="tripinfo_58" vType="DEFAULT_VEHTYPE" speedFactor="1.00" vaporized=""/>
    <tripinfo id="31" depart="35.00" departLane="SouthEasttoR_0" departPos="5.10" departSpeed="0.00" departDelay="4.00" arrival="196.00" arrivalLane="UtoNorthEast_0" arrivalPos="488.57" arrivalSpeed="13.05" duration="161.00" routeLength="1684.15" waitSteps="13" timeLoss="39.62" rerouteNo="0" devices="tripinfo_31" vType="DEFAULT_VEHTYPE" speedFactor="1.00" vaporized=""/>
    <tripinfo id="13" depart="13.00" departLane="EasttoR_0" departPos="5.10" departSpeed="0.00" departDelay="0.00" arrival="197.00" arrivalLane="UtoNorthEast_1" arrivalPos="488.57" arrivalSpeed="13.31" duration="184.00" routeLength="1675.13" waitSteps="34" timeLoss="62.98" rerouteNo="0" devices="tripinfo_13" vType="DEFAULT_VEHTYPE" speedFactor="1.00" vaporized=""/>
    <tripinfo id="123" depart="123.00" departLane="SouthEasttoR_0" departPos="5.10" departSpeed="0.00" departDelay="0.00" arrival="200.00" arrivalLane="RtoEast_0" arrivalPos="474.72" arrivalSpeed="13.62" duration="77.00" routeLength="950.90" waitSteps="0" timeLoss="8.05" rerouteNo="0" devices="tripinfo_123" vType="DEFAULT_VEHTYPE" speedFactor="1.00" vaporized=""/>
    <tripinfo id="56" depart="57.00" departLane="NorthEasttoU_0" departPos="5.10" departSpeed="0.00" departDelay="1.00" arrival="202.00" arrivalLane="LtoSouthWest_0" arrivalPos="474.64" arrivalSpeed="13.86" duration="145.00" routeLength="1701.85" waitSteps="5" timeLoss="21.54" rerouteNo="0" devices="tripinfo_56" vType="DEFAULT_VEHTYPE" speedFactor="1.00" vaporized=""/>
    <tripinfo id="57" depart="58.00" departLane="NorthWesttoU_0" departPos="5.10" departSpeed="0.00" departDelay="1.00" arrival="204.00" arrivalLane="LtoWest_0" arrivalPos="474.72" arrivalSpeed="12.83" duration="146.00" routeLength="1675.13" waitSteps="8" timeLoss="24.77" rerouteNo="0" devices="tripinfo_57" vType="DEFAULT_VEHTYPE" speedFactor="1.00" vaporized=""/>
    <tripinfo id="65" depart="65.00" departLane="NorthEasttoU_0" departPos="5.10" departSpeed="0.00" departDelay="0.00" arrival="206.00" arrivalLane="LtoSouthWest_0" arrivalPos="474.64" arrivalSpeed="13.50" duration="141.00" routeLength="1701.85" waitSteps="0" timeLoss="17.77" rerouteNo="0" devices="tripinfo_65" vType="DEFAULT_VEHTYPE" speedFactor="1.00" vaporized=""/>
    <tripinfo id="64" depart="67.00" departLane="SouthWesttoL_0" departPos="5.10" departSpeed="0.00" departDelay="3.00" arrival="209.00" arrivalLane="UtoNorthWest_1" arrivalPos="488.57" arrivalSpeed="13.29" duration="142.00" routeLength="1705.44" waitSteps="4" timeLoss="19.47" rerouteNo="0" devices="tripinfo_64" vType="DEFAULT_VEHTYPE" speedFactor="1.00" vaporized=""/>
    <tripinfo id="102" depart="102.00" departLane="SouthWesttoL_0" departPos="5.10" departSpeed="0.00" departDelay="0.00" arrival="210.00" arrivalLane="LtoWest_0" arrivalPos="474.72" arrivalSpeed="13.37" duration="108.00" routeLength="990.37" waitSteps="24" timeLoss="36.67" rerouteNo="0" devices="tripinfo_102" vType="DEFAULT_VEHTYPE" speedFactor="1.00" vaporized=""/>
    <tripinfo id="25" depart="25.00" departLane="WesttoL_0" departPos="5.10" departSpeed="0.00" departDelay="0.00" arrival="210.00" arrivalLane="UtoNorthWest_0" arrivalPos="488.57" arrivalSpeed="12.68" duration="185.00" routeLength="1706.79" waitSteps="41" timeLoss="61.25" rerouteNo="0" devices="tripinfo_25" vType="DEFAULT_VEHTYPE" speedFactor="1.00" vaporized=""/>
    <tripinfo id="3" depart="5.00" departLane="NorthEasttoU_0" departPos="5.10" departSpeed="0.00" departDelay="2.00" arrival="211.00" arrivalLane="RtoEast_1" arrivalPos="474.72" arrivalSpeed="12.62" duration="206.00" routeLength="1706.79" waitSteps="64" timeLoss="83.62" rerouteNo="0" devices="tripinfo_3" vType="DEFAULT_VEHTYPE" speedFactor="1.00" vaporized=""/>
    <tripinfo id="2" depart="2.00" departLane="NorthEasttoU_0" departPos="5.10" departSpeed="0.00" departDelay="0.00" arrival="211.00" arrivalLane="RtoEast_0" arrivalPos="474.72" arrivalSpeed="13.32" duration="209.00" routeLength="1706.79" waitSteps="68" timeLoss="85.86" rerouteNo="0" devices="tripinfo_2" vType="DEFAULT_VEHTYPE" speedFactor="1.00" vaporized=""/>
    <tripinfo id="34" depart="34.00" departLane="WesttoL_0" departPos="5.10" departSpeed="0.00" departDelay="0.00" arrival="211.00" arrivalLane="UtoNorthEast_0" arrivalPos="488.57" arrivalSpeed="13.45" duration="177.00" routeLength="1703.20" waitSteps="38" timeLoss="53.75" rerouteNo="0" devices="tripinfo_34" vType="DEFAULT_VEHTYPE" speedFactor="1.00" vaporized=""/>
    <tripinfo id="43" depart="43.00" departLane="NorthWesttoU_0" departPos="5.10" departSpeed="0.00" departDelay="0.00" arrival="213.00" arrivalLane="RtoEast_1" arrivalPos="474.72" arrivalSpeed="13.32" duration="170.00" routeLength="1703.20" waitSteps="24" timeLoss="47.27" rerouteNo="0" devices="tripinfo_43" vType="DEFAULT_VEHTYPE" speedFactor="1.00" vaporized=""/>
    <tripinfo id="126" depart="126.00" departLane="SouthWesttoL_0" departPos="5.10" departSpeed="0.00" departDelay="0.00" arrival="213.00" arrivalLane="LtoWest_0" arrivalPos="474.72" arrivalSpeed="12.82" duration="87.00" routeLength="990.37" waitSteps="2" timeLoss="15.52" rerouteNo="0" devices="tripinfo_126" vType="DEFAULT_VEHTYPE" speedFactor="1.00" vaporized=""/>
    <tripinfo id="49" depart="49.00" departLane="SouthWesttoL_0" departPos="5.10" departSpeed="0.00" departDelay="0.00" arrival="213.00" arrivalLane="UtoNorthEast_0" arrivalPos="488.57" arrivalSpeed="13.21" duration="164.00" routeLength="1701.85" waitSteps="24" timeLoss="41.13" rerouteNo="0" devices="tripinfo_49" vType="DEFAULT_VEHTYPE" speedFactor="1.00" vaporized=""/>
    <tripinfo id="38" depart="38.00" departLane="NorthEasttoU_0" departPos="5.10" departSpeed="0.00" departDelay="0.00" arrival="214.00" arrivalLane="RtoEast_0" arrivalPos="474.72" arrivalSpeed="12.76" duration="176.00" routeLength="1706.79" waitSteps="35" timeLoss="52.93" rerouteNo="0" devices="tripinfo_38" vType="DEFAULT_VEHTYPE" speedFactor="1.00" vaporized=""/>
    <tripinfo id="51" depart="51.00" departLane="NorthEasttoU_0" departPos="5.10" departSpeed="0.00" departDelay="0.00" arrival="215.00" arrivalLane="RtoSouthEast_0" arrivalPos="474.64" arrivalSpeed="12.96" duration="164.00" routeLength="1705.44" waitSteps="21" timeLoss="40.67" rerouteNo="0" devices="tripinfo_51" vType="DEFAULT_VEHTYPE" speedFactor="1.00" vaporized=""/>
    <tripinfo id="129" depart="135.00" departLane="SouthWesttoL_0" departPos="5.10" departSpeed="0.00" departDelay="6.00" arrival="215.00" arrivalLane="LtoWest_0" arrivalPos="474.72" arrivalSpeed="12.82" duration="80.00" routeLength="990.37" waitSteps="0" timeLoss="9.31" rerouteNo="0" devices="tripinfo_129" vType="DEFAULT_VEHTYPE" speedFactor="1.00" vaporized=""/>
    <tripinfo id="50" depart="50.00" departLane="NorthWesttoU_0" departPos="5.10" departSpeed="0.00" departDelay="0.00" arrival="216.00" arrivalLane="RtoEast_1" arrivalPos="474.72" arrivalSpeed="13.01" duration="166.00" routeLength="1703.20" waitSteps="23" timeLoss="43.09" rerouteNo="0" devices="tripinfo_50" vType="DEFAULT_VEHTYPE" speedFactor="1.00" vaporized=""/>
    <tripinfo id="21" depart="21.00" departLane="NorthWesttoU_0" departPos="5.10" departSpeed="0.00" departDelay="0.00" arrival="216.00" arrivalLane="RtoEast_0" arrivalPos="474.72" arrivalSpeed="12.95" duration="195.00" routeLength="1703.20" waitSteps="49" timeLoss="71.94" rerouteNo="0" devices="tripinfo_21" vType="DEFAULT_VEHTYPE" speedFactor="1.00" vaporized=""/>
    <tripinfo id="54" depart="54.00" departLane="NorthEasttoU_0" departPos="5.10" departSpeed="0.00" departDelay="0.00" arrival="218.00" arrivalLane="RtoEast_1" arrivalPos="474.72" arrivalSpeed="12.87" duration="164.00" routeLength="1706.79" waitSteps="17" timeLoss="40.81" rerouteNo="0" devices="tripinfo_54" vType="DEFAULT_VEHTYPE" speedFactor="1.00" vaporized=""/>
    <tripinfo id="47" depart="47.00" departLane="NorthEasttoU_0" departPos="5.10" departSpeed="0.00" departDelay="0.00" arrival="218.00" arrivalLane="RtoEast_0" arrivalPos="474.72" arrivalSpeed="13.02" duration="171.00" routeLength="1706.79" waitSteps="23" timeLoss="47.82" rerouteNo="0" devices="tripinfo_47" vType="DEFAULT_VEHTYPE" speedFactor="1.00" vaporized=""/>
    <tripinfo id="68" depart="71.00" departLane="NorthEasttoU_0" departPos="5.10" departSpeed="0.00" departDelay="3.00" arrival="220.00" arrivalLane="RtoEast_1" arrivalPos="474.72" arrivalSpeed="13.53" duration="149.00" routeLength="1706.79" waitSteps="6" timeLoss="26.08" rerouteNo="0" devices="tripinfo_68" vType="DEFAULT_VEHTYPE" speedFactor="1.00" vaporized=""/>
    <tripinfo id="70" depart="70.00" departLane="NorthWesttoU_0" departPos="5.10" departSpeed="0.00" departDelay="0.00" arrival="224.00" arrivalLane="RtoEast_0" arrivalPos="474.72" arrivalSpeed="13.46" duration="154.00" routeLength="1703.20" waitSteps="12" timeLoss="30.74" rerouteNo="0" devices="tripinfo_70" vType="DEFAULT_VEHTYPE" speedFactor="1.00" vaporized=""/>
    <tripinfo id="80" depart="80.00" departLane="WesttoL_0" departPos="5.10" departSpeed="0.00" departDelay="0.00" arrival="224.00" arrivalLane="UtoNorthEast_1" arrivalPos="488.57" arrivalSpeed="13.57" duration="144.00" routeLength="1703.20" waitSteps="2" timeLoss="20.76" rerouteNo="0" devices="tripinfo_80" vType="DEFAULT_VEHTYPE" speedFactor="1.00" vaporized=""/>
    <tripinfo id="71" depart="71.00" departLane="WesttoL_0" departPos="5.10" departSpeed="0.00" departDelay="0.00" arrival="224.00" arrivalLane="UtoNorthEast_0" arrivalPos="488.57" arrivalSpeed="12.61" duration="153.00" routeLength="1703.20" waitSteps="12" timeLoss="30.00" rerouteNo="0" devices="tripinfo_71" vType="DEFAULT_VEHTYPE" speedFactor="1.00" vaporized=""/>
    <tripinfo id="106" depart="112.00" departLane="WesttoL_0" departPos="5.10" departSpeed="0.00" departDelay="6.00" arrival="228.00" arrivalLane="LtoSouthWest_0" arrivalPos="474.64" arrivalSpeed="13.14" duration="116.00" routeLength="950.90" waitSteps="34" timeLoss="47.09" rerouteNo="0" devices="tripinfo_106" vType="DEFAULT_VEHTYPE" speedFactor="1.00" vaporized=""/>
    <tripinfo id="130" depart="135.00" departLane="WesttoL_0" departPos="5.10" departSpeed="0.00" departDelay="5.00" arrival="235.00" arrivalLane="LtoSouthWest_0" arrivalPos="474.64" arrivalSpeed="13.21" duration="100.00" routeLength="950.90" waitSteps="17" timeLoss="31.01" rerouteNo="0" devices="tripinfo_130" vType="DEFAULT_VEHTYPE" speedFactor="1.00" vaporized=""/>
    <tripinfo id="133" depart="139.00" departLane="WesttoL_0" departPos="5.10" departSpeed="0.00" departDelay="6.00" arrival="237.00" arrivalLane="LtoSouthWest_1" arrivalPos="474.64" arrivalSpeed="13.56" duration="98.00" routeLength="950.90" waitSteps="13" timeLoss="27.95" rerouteNo="0" devices="tripinfo_133" vType="DEFAULT_VEHTYPE" speedFactor="1.00" vaporized=""/>
    <tripinfo id="88" depart="88.00" departLane="WesttoL_0" departPos="5.10" departSpeed="0.00" departDelay="0.00" arrival="240.00" arrivalLane="UtoNorthWest_0" arrivalPos="488.57" arrivalSpeed="13.28" duration="152.00" routeLength="1706.79" waitSteps="7" timeLoss="28.47" rerouteNo="0" devices="tripinfo_88" vType="DEFAULT_VEHTYPE" speedFactor="1.00" vaporized=""/>
    <tripinfo id="114" depart="114.00" departLane="NorthWesttoU_0" departPos="5.10" departSpeed="0.00" departDelay="0.00" arrival="251.00" arrivalLane="UtoNorthEast_0" arrivalPos="488.57" arrivalSpeed="12.91" duration="137.00" routeLength="998.33" waitSteps="54" timeLoss="65.06" rerouteNo="0" devices="tripinfo_114" vType="DEFAULT_VEHTYPE" speedFactor="1.00" vaporized=""/>
    <tripinfo id="6" depart="6.00" departLane="SouthWesttoL_0" departPos="5.10" departSpeed="0.00" departDelay="0.00" arrival="251.00" arrivalLane="RtoSouthEast_0" arrivalPos="474.64" arrivalSpeed="12.71" duration="245.00" routeLength="1976.54" waitSteps="87" timeLoss="102.69" rerouteNo="0" devices="tripinfo_6" vType="DEFAULT_VEHTYPE" speedFactor="1.00" vaporized=""/>
    <tripinfo id="132" depart="132.00" departLane="NorthWesttoU_0" departPos="5.10" departSpeed="0.00" departDelay="0.00" arrival="251.00" arrivalLane="UtoNorthEast_1" arrivalPos="488.57" arrivalSpeed="13.06" duration="119.00" routeLength="998.33" waitSteps="36" timeLoss="47.15" rerouteNo="0" devices="tripinfo_132" vType="DEFAULT_VEHTYPE" speedFactor="1.00" vaporized=""/>
    <tripinfo id="11" depart="13.00" departLane="WesttoL_0" departPos="5.10" departSpeed="0.00" departDelay="2.00" arrival="252.00" arrivalLane="RtoEast_1" arrivalPos="474.72" arrivalSpeed="12.63" duration="239.00" routeLength="1994.90" waitSteps="74" timeLoss="95.18" rerouteNo="0" devices="tripinfo_11" vType="DEFAULT_VEHTYPE" speedFactor="1.00" vaporized=""/>
    <tripinfo id="7" depart="9.00" departLane="SouthWesttoL_0" departPos="5.10" departSpeed="0.00" departDelay="2.00" arrival="252.00" arrivalLane="RtoEast_0" arrivalPos="474.72" arrivalSpeed="12.72" duration="243.00" routeLength="1985.72" waitSteps="85" timeLoss="99.95" rerouteNo="0" devices="tripinfo_7" vType="DEFAULT_VEHTYPE" speedFactor="1.00" vaporized=""/>
    <tripinfo id="29" depart="29.00" departLane="SouthEasttoR_0" departPos="5.10" departSpeed="0.00" departDelay="0.00" arrival="252.00" arrivalLane="LtoWest_0" arrivalPos="474.72" arrivalSpeed="12.81" duration="223.00" routeLength="1996.09" waitSteps="56" timeLoss="79.09" rerouteNo="0" devices="tripinfo_29" vType="DEFAULT_VEHTYPE" speedFactor="1.00" vaporized=""/>
    <tripinfo id="9" depart="12.00" departLane="SouthWesttoL_0" departPos="5.10" departSpeed="0.00" departDelay="3.00" arrival="253.00" arrivalLane="RtoSouthEast_0" arrivalPos="474.64" arrivalSpeed="13.31" duration="241.00" routeLength="1976.54" waitSteps="82" timeLoss="98.61" rerouteNo="0" devices="tripinfo_9" vType="DEFAULT_VEHTYPE" speedFactor="1.00" vaporized=""/>
    <tripinfo id="5" depart="7.00" departLane="SouthEasttoR_0" departPos="5.10" departSpeed="0.00" departDelay="2.00" arrival="253.00" arrivalLane="LtoSouthWest_1" arrivalPos="474.64" arrivalSpeed="13.56" duration="246.00" routeLength="1997.28" waitSteps="84" timeLoss="102.09" rerouteNo="0" devices="tripinfo_5" vType="DEFAULT_VEHTYPE" speedFactor="1.00" vaporized=""/>
    <tripinfo id="4" depart="4.00" departLane="SouthEasttoR_0" departPos="5.10" departSpeed="0.00" departDelay="0.00" arrival="253.00" arrivalLane="LtoSouthWest_0" arrivalPos="474.64" arrivalSpeed="12.71" duration="249.00" routeLength="1997.28" waitSteps="87" timeLoss="105.10" rerouteNo="0" devices="tripinfo_4" vType="DEFAULT_VEHTYPE" speedFactor="1.00" vaporized=""/>
    <tripinfo id="37" depart="38.00" departLane="SouthEasttoR_0" departPos="5.10" departSpeed="0.00" departDelay="1.00" arrival="254.00" arrivalLane="LtoWest_0" arrivalPos="474.72" arrivalSpeed="12.94" duration="216.00" routeLength="1996.09" waitSteps="46" timeLoss="72.08" rerouteNo="0" devices="tripinfo_37" vType="DEFAULT_VEHTYPE" speedFactor="1.00" vaporized=""/>
    <tripinfo id="39" depart="39.00" departLane="SouthWesttoL_0" departPos="5.10" departSpeed="0.00" departDelay="0.00" arrival="254.00" arrivalLane="RtoEast_2" arrivalPos="474.72" arrivalSpeed="13.40" duration="215.00" routeLength="1985.72" waitSteps="48" timeLoss="71.48" rerouteNo="0" devices="tripinfo_39" vType="DEFAULT_VEHTYPE" speedFactor="1.00" vaporized=""/>
    <tripinfo id="22" depart="25.00" departLane="EasttoR_0" departPos="5.10" departSpeed="0.00" departDelay="3.00" arrival="255.00" arrivalLane="LtoWest_1" arrivalPos="474.72" arrivalSpeed="13.29" duration="230.00" routeLength="1994.90" waitSteps="68" timeLoss="85.98" rerouteNo="0" devices="tripinfo_22" vType="DEFAULT_VEHTYPE" speedFactor="1.00" vaporized=""/>
    <tripinfo id="154" depart="154.00" departLane="NorthWesttoU_0" departPos="5.10" departSpeed="0.00" departDelay="0.00" arrival="255.00" arrivalLane="UtoNorthEast_0" arrivalPos="488.57" arrivalSpeed="13.73" duration="101.00" routeLength="998.33" waitSteps="16" timeLoss="29.19" rerouteNo="0" devices="tripinfo_154" vType="DEFAULT_VEHTYPE" speedFactor="1.00" vaporized=""/>
    <tripinfo id="61" depart="61.00" departLane="SouthWesttoL_0" departPos="5.10" departSpeed="0.00" departDelay="0.00" arrival="256.00" arrivalLane="RtoEast_0" arrivalPos="474.72" arrivalSpeed="13.53" duration="195.00" routeLength="1985.72" waitSteps="33" timeLoss="51.84" rerouteNo="0" devices="tripinfo_61" vType="DEFAULT_VEHTYPE" speedFactor="1.00" vaporized=""/>
    <tripinfo id="10" depart="10.00" departLane="WesttoL_0" departPos="5.10" departSpeed="0.00" departDelay="0.00" arrival="256.00" arrivalLane="RtoSouthEast_0" arrivalPos="474.64" arrivalSpeed="12.77" duration="246.00" routeLength="1985.72" waitSteps="76" timeLoss="102.87" rerouteNo="0" devices="tripinfo_10" vType="DEFAULT_VEHTYPE" speedFactor="1.00" vaporized=""/>
    <tripinfo id="76" depart="76.00" departLane="SouthEasttoR_0" departPos="5.10" departSpeed="0.00" departDelay="0.00" arrival="257.00" arrivalLane="LtoWest_0" arrivalPos="474.72" arrivalSpeed="13.79" duration="181.00" routeLength="1996.09" waitSteps="18" timeLoss="36.41" rerouteNo="0" devices="tripinfo_76" vType="DEFAULT_VEHTYPE" speedFactor="1.00" vaporized=""/>
    <tripinfo id="84" depart="84.00" departLane="WesttoL_0" departPos="5.10" departSpeed="0.00" departDelay="0.00" arrival="258.00" arrivalLane="RtoEast_1" arrivalPos="474.72" arrivalSpeed="12.63" duration="174.00" routeLength="1994.90" waitSteps="9" timeLoss="29.92" rerouteNo="0" devices="tripinfo_84" vType="DEFAULT_VEHTYPE" speedFactor="1.00" vaporized=""/>
    <tripinfo id="157" depart="160.00" departLane="NorthWesttoU_0" departPos="5.10" departSpeed="0.00" departDelay="3.00" arrival="258.00" arrivalLane="UtoNorthEast_0" arrivalPos="488.57" arrivalSpeed="12.77" duration="98.00" routeLength="998.33" waitSteps="12" timeLoss="25.92" rerouteNo="0" devices="tripinfo_157" vType="DEFAULT_VEHTYPE" speedFactor="1.00" vaporized=""/>
    <tripinfo id="30" depart="32.00" departLane="SouthEasttoR_0" departPos="5.10" departSpeed="0.00" departDelay="2.00" arrival="258.00" arrivalLane="LtoSouthWest_1" arrivalPos="474.64" arrivalSpeed="12.91" duration="226.00" routeLength="1997.28" waitSteps="57" timeLoss="82.59" rerouteNo="0" devices="tripinfo_30" vType="DEFAULT_VEHTYPE" speedFactor="1.00" vaporized=""/>
    <tripinfo id="18" depart="22.00" departLane="EasttoR_0" departPos="5.10" departSpeed="0.00" departDelay="4.00" arrival="259.00" arrivalLane="LtoSouthWest_0" arrivalPos="474.64" arrivalSpeed="13.04" duration="237.00" routeLength="1996.09" waitSteps="69" timeLoss="92.45" rerouteNo="0" devices="tripinfo_18" vType="DEFAULT_VEHTYPE" speedFactor="1.00" vaporized=""/>
    <tripinfo id="75" depart="77.00" departLane="EasttoR_0" departPos="5.10" departSpeed="0.00" departDelay="2.00" arrival="260.00" arrivalLane="LtoWest_1" arrivalPos="474.72" arrivalSpeed="12.91" duration="183.00" routeLength="1994.90" waitSteps="13" timeLoss="38.70" rerouteNo="0" devices="tripinfo_75" vType="DEFAULT_VEHTYPE" speedFactor="1.00" vaporized=""/>
    <tripinfo id="53" depart="53.00" departLane="SouthWesttoL_0" departPos="5.10" departSpeed="0.00" departDelay="0.00" arrival="260.00" arrivalLane="RtoEast_0" arrivalPos="474.72" arrivalSpeed="12.80" duration="207.00" routeLength="1985.72" waitSteps="43" timeLoss="63.21" rerouteNo="0" devices="tripinfo_53" vType="DEFAULT_VEHTYPE" speedFactor="1.00" vaporized=""/>
    <tripinfo id="78" depart="79.00" departLane="SouthEasttoR_0" departPos="5.10" departSpeed="0.00" departDelay="1.00" arrival="260.00" arrivalLane="LtoWest_0" arrivalPos="474.72" arrivalSpeed="12.82" duration="181.00" routeLength="1996.09" waitSteps="16" timeLoss="36.54" rerouteNo="0" devices="tripinfo_78" vType="DEFAULT_VEHTYPE" speedFactor="1.00" vaporized=""/>
    <tripinfo id="181" depart="181.00" departLane="NorthWesttoU_0" departPos="5.10" departSpeed="0.00" departDelay="0.00" arrival="262.00" arrivalLane="UtoNorthEast_0" arrivalPos="488.57" arrivalSpeed="12.79" duration="81.00" routeLength="998.33" waitSteps="0" timeLoss="8.71" rerouteNo="0" devices="tripinfo_181" vType="DEFAULT_VEHTYPE" speedFactor="1.00" vaporized=""/>